BEGIN_CFG
 Size
    32
 Supercell
         8.458526959      1.656720733      1.673168563
         1.573491987      8.821430406      -1.494376014
         1.591543182      -1.495192313      8.82509342
 AtomData:  id type       cartes_x      cartes_y      cartes_z           fx          fy          fz
             1   47      5.05090000      5.78372000      5.75045000    0.018838    0.047343    0.012344
             2   47      4.66633000      6.28667000      2.14625000   -0.004790   -0.027964   -0.017420
             3   47      2.80594000      6.08550000      4.05139000   -0.033490    0.025448   -0.014125
             4   47      4.76187000      3.84274000      3.96024000    0.031213    0.025839   -0.006148
             5   47      2.79032000      6.42301000     -0.51454000   -0.004618    0.004951   -0.001954
             6   47      8.87582000      5.92815000      1.52232000    0.033239   -0.005414    0.009245
             7   47      9.60738000      7.84803000      3.46465000   -0.017782    0.069397   -0.056303
             8   47      2.83757000      3.96414000      6.13615000   -0.005702   -0.032126    0.020705
             9   47      9.16648000      5.55165000      5.66779000   -0.045306   -0.033327    0.002147
            10   47      2.71976000     -0.46418000      6.50783000   -0.013216   -0.022075   -0.017820
            11   47      3.78719000      8.61640000      0.85585000    0.004893   -0.007441   -0.045107
            12   47      6.27538000      6.89303000      0.06999000   -0.023813    0.052181    0.043149
            13   47      7.13269000      6.30662000      3.91718000    0.024703    0.034399    0.009336
            14   47      8.85625000      1.48000000      6.02048000    0.021445    0.005636    0.042656
            15   47      7.92778000      8.75884000      5.42512000   -0.003740    0.012854    0.054637
            16   47      4.60154000      1.84063000      1.94613000   -0.011856   -0.015187   -0.009575
            17   47      4.63637000      1.99019000      6.43854000    0.018229    0.001157   -0.010183
            18   47      9.27481000      7.44502000      7.55567000    0.030597   -0.035293   -0.034226
            19   47      8.21397000      8.58187000      1.28764000   -0.021640    0.017520   -0.042008
            20   47      6.60395000      7.22399000      7.28694000    0.027145   -0.039862   -0.008963
            21   47      6.06009000      8.68023000      2.96143000    0.014711    0.018043   -0.009889
            22   47      2.68618000      3.95758000      2.02218000   -0.022851    0.049609   -0.038710
            23   47      3.77074000      0.74725000      8.78387000    0.020235   -0.020706   -0.025965
            24   47      2.67821000      1.87923000      4.07681000   -0.022033    0.007702    0.048476
            25   47      9.47363000      3.45167000      7.92510000    0.012348   -0.083948    0.028197
            26   47      8.20599000      1.18587000      8.68239000    0.007156   -0.034805    0.012472
            27   47      7.02456000      3.87519000      6.39011000    0.022257    0.032369    0.033476
            28   47      8.42415000      1.67258000      1.76277000   -0.017524   -0.023825   -0.022094
            29   47      6.64177000      1.91070000      4.40682000    0.000282   -0.010287   -0.011363
            30   47      8.79247000      3.61319000      3.77216000    0.007302   -0.017730   -0.032057
            31   47      6.07080000      2.85427000      8.80492000    0.000484    0.005962    0.061829
            32   47      6.68694000      4.27742000      2.02853000   -0.046719   -0.000420    0.025240
 Energy
      -88.793416
 PlusStress:  xx          yy          zz          yz          xz          xy
        0.45681    0.70587    0.75374    -0.26559    0.24145    -0.23770
END_CFG

BEGIN_CFG
 Size
    32
 Supercell
         8.464367542      1.654782691      1.677485389
         1.570870501      8.830852271      -1.499033421
         1.596387395      -1.500887298      8.836299561
 AtomData:  id type       cartes_x      cartes_y      cartes_z           fx          fy          fz
             1   47      5.05531000      5.78805000      5.75710000    0.002379    0.028311   -0.001183
             2   47      4.66784000      6.28948000      2.14703000   -0.007665   -0.016026   -0.008870
             3   47      2.80555000      6.09058000      4.05390000   -0.021280    0.014716   -0.020753
             4   47      4.76672000      3.84479000      3.96463000    0.013753    0.020806    0.001902
             5   47      2.78953000      6.42929000     -0.51678000    0.000287   -0.000800   -0.011546
             6   47      8.88196000      5.93040000      1.52535000    0.027140   -0.004822    0.006010
             7   47      9.61158000      7.85491000      3.46622000   -0.017453    0.064555   -0.045804
             8   47      2.84006000      3.96334000      6.14357000   -0.001840   -0.027348    0.013125
             9   47      9.17068000      5.55039000      5.67545000   -0.030604   -0.035083   -0.006404
            10   47      2.72353000     -0.46931000      6.51554000   -0.009206   -0.021345   -0.015633
            11   47      3.78726000      8.62351000      0.85257000    0.000638   -0.001557   -0.024045
            12   47      6.27611000      6.90061000      0.07168000   -0.006119    0.034901    0.027333
            13   47      7.13796000      6.31087000      3.92215000    0.022470    0.036848    0.004803
            14   47      8.86504000      1.47626000      6.03201000    0.013948    0.004978    0.024940
            15   47      7.93190000      8.76376000      5.43331000   -0.003112    0.014851    0.045835
            16   47      4.60418000      1.83942000      1.94881000   -0.017589   -0.009868   -0.005036
            17   47      4.64208000      1.98812000      6.44625000    0.018987    0.002888   -0.005779
            18   47      9.28276000      7.44489000      7.56300000    0.026110   -0.033861   -0.024211
            19   47      8.21597000      8.58839000      1.28663000   -0.015618    0.006358   -0.038329
            20   47      6.60987000      7.22447000      7.29430000    0.032651   -0.025591   -0.000637
            21   47      6.06294000      8.68698000      2.96304000    0.006402    0.014760   -0.006323
            22   47      2.68625000      3.96242000      2.02200000   -0.028720    0.037910   -0.017301
            23   47      3.77725000      0.74217000      8.79368000    0.022379   -0.023033   -0.025344
            24   47      2.67980000      1.87901000      4.08401000   -0.013316    0.008059    0.027908
            25   47      9.48240000      3.44472000      7.93753000   -0.002413   -0.051512    0.044375
            26   47      8.21473000      1.17904000      8.69537000   -0.002042   -0.030531    0.023077
            27   47      7.03141000      3.87580000      6.39999000    0.010937    0.022691    0.036451
            28   47      8.42915000      1.66949000      1.76610000   -0.014778   -0.021281   -0.021938
            29   47      6.64728000      1.90809000      4.41294000    0.006137   -0.000660   -0.000992
            30   47      8.79895000      3.61151000      3.77665000    0.006237   -0.018100   -0.032359
            31   47      6.07719000      2.85190000      8.81898000    0.009347    0.006223    0.039040
            32   47      6.68849000      4.27875000      2.03277000   -0.028051    0.002561    0.017687
 Energy
      -88.797502
 PlusStress:  xx          yy          zz          yz          xz          xy
        -0.49121    -0.42098    -0.25558    -0.20275    0.07838    0.05383
END_CFG

BEGIN_CFG
 Size
    32
 Supercell
         8.466931764      1.653931823      1.679380628
         1.569719577      8.834988801      -1.501078187
         1.598514175      -1.503387596      8.841219451
 AtomData:  id type       cartes_x      cartes_y      cartes_z           fx          fy          fz
             1   47      5.05725000      5.78995000      5.76002000   -0.005424    0.019649   -0.007160
             2   47      4.66850000      6.29071000      2.14738000   -0.009106   -0.010810   -0.005045
             3   47      2.80537000      6.09281000      4.05500000   -0.015663    0.009882   -0.023734
             4   47      4.76885000      3.84568000      3.96657000    0.005801    0.018312    0.005587
             5   47      2.78919000      6.43205000     -0.51776000    0.002356   -0.003177   -0.015844
             6   47      8.88466000      5.93139000      1.52668000    0.024245   -0.004469    0.004819
             7   47      9.61343000      7.85793000      3.46691000   -0.017398    0.061957   -0.040872
             8   47      2.84115000      3.96298000      6.14682000    0.000125   -0.024967    0.009559
             9   47      9.17253000      5.54984000      5.67881000   -0.023361   -0.035647   -0.010481
            10   47      2.72518000     -0.47157000      6.51892000   -0.007299   -0.020991   -0.014314
            11   47      3.78729000      8.62663000      0.85113000   -0.001195    0.001044   -0.014367
            12   47      6.27643000      6.90394000      0.07242000    0.001394    0.027242    0.020163
            13   47      7.14027000      6.31274000      3.92434000    0.021353    0.037638    0.002370
            14   47      8.86890000      1.47462000      6.03708000    0.010555    0.004690    0.016999
            15   47      7.93371000      8.76593000      5.43690000   -0.002695    0.015546    0.041534
            16   47      4.60534000      1.83890000      1.94999000   -0.020392   -0.007426   -0.002843
            17   47      4.64458000      1.98721000      6.44964000    0.018988    0.003577   -0.003998
            18   47      9.28625000      7.44483000      7.56621000    0.023555   -0.033021   -0.019584
            19   47      8.21685000      8.59125000      1.28618000   -0.012708    0.001095   -0.036372
            20   47      6.61247000      7.22468000      7.29753000    0.035101   -0.019110    0.003239
            21   47      6.06419000      8.68995000      2.96375000    0.002689    0.013309   -0.004589
            22   47      2.68627000      3.96454000      2.02192000   -0.031041    0.032373   -0.007582
            23   47      3.78010000      0.73995000      8.79798000    0.023297   -0.023767   -0.024887
            24   47      2.68050000      1.87892000      4.08717000   -0.009349    0.008456    0.018490
            25   47      9.48625000      3.44167000      7.94299000   -0.008769   -0.036862    0.051112
            26   47      8.21856000      1.17603000      8.70107000   -0.005859   -0.028429    0.027406
            27   47      7.03442000      3.87607000      6.40433000    0.005872    0.017809    0.037326
            28   47      8.43134000      1.66813000      1.76756000   -0.013154   -0.019984   -0.021750
            29   47      6.64969000      1.90694000      4.41562000    0.008542    0.003709    0.003699
            30   47      8.80180000      3.61078000      3.77862000    0.005749   -0.017936   -0.032193
            31   47      6.07999000      2.85085000      8.82516000    0.013319    0.006310    0.028807
            32   47      6.68917000      4.27933000      2.03463000   -0.019531    0.003996    0.014507
 Energy
      -88.797922
 PlusStress:  xx          yy          zz          yz          xz          xy
        -0.95805    -0.96088    -0.74845    -0.17812    0.01724    0.16886
END_CFG
